# vtk DataFile Version 3.0
MOAB 4.9.3pre
ASCII
DATASET UNSTRUCTURED_GRID
POINTS 1331 double
-49.5 -14.1 -49.2
-39.6 -14.1 -49.2
-29.7 -14.1 -49.2
-19.8 -14.1 -49.2
-9.9 -14.1 -49.2
0 -14.1 -49.2
9.9 -14.1 -49.2
19.8 -14.1 -49.2
29.7 -14.1 -49.2
39.6 -14.1 -49.2
49.5 -14.1 -49.2
-49.5 -4.95 -49.2
-39.6 -4.95 -49.2
-29.7 -4.95 -49.2
-19.8 -4.95 -49.2
-9.9 -4.95 -49.2
0 -4.95 -49.2
9.9 -4.95 -49.2
19.8 -4.95 -49.2
29.7 -4.95 -49.2
39.6 -4.95 -49.2
49.5 -4.95 -49.2
-49.5 4.21 -49.2
-39.6 4.21 -49.2
-29.7 4.21 -49.2
-19.8 4.21 -49.2
-9.9 4.21 -49.2
0 4.21 -49.2
9.9 4.21 -49.2
19.8 4.21 -49.2
29.7 4.21 -49.2
39.6 4.21 -49.2
49.5 4.21 -49.2
-49.5 13.36 -49.2
-39.6 13.36 -49.2
-29.7 13.36 -49.2
-19.8 13.36 -49.2
-9.9 13.36 -49.2
0 13.36 -49.2
9.9 13.36 -49.2
19.8 13.36 -49.2
29.7 13.36 -49.2
39.6 13.36 -49.2
49.5 13.36 -49.2
-49.5 22.51 -49.2
-39.6 22.51 -49.2
-29.7 22.51 -49.2
-19.8 22.51 -49.2
-9.9 22.51 -49.2
0 22.51 -49.2
9.9 22.51 -49.2
19.8 22.51 -49.2
29.7 22.51 -49.2
39.6 22.51 -49.2
49.5 22.51 -49.2
-49.5 31.66 -49.2
-39.6 31.66 -49.2
-29.7 31.66 -49.2
-19.8 31.66 -49.2
-9.9 31.66 -49.2
0 31.66 -49.2
9.9 31.66 -49.2
19.8 31.66 -49.2
29.7 31.66 -49.2
39.6 31.66 -49.2
49.5 31.66 -49.2
-49.5 40.82 -49.2
-39.6 40.82 -49.2
-29.7 40.82 -49.2
-19.8 40.82 -49.2
-9.9 40.82 -49.2
0 40.82 -49.2
9.9 40.82 -49.2
19.8 40.82 -49.2
29.7 40.82 -49.2
39.6 40.82 -49.2
49.5 40.82 -49.2
-49.5 49.97 -49.2
-39.6 49.97 -49.2
-29.7 49.97 -49.2
-19.8 49.97 -49.2
-9.9 49.97 -49.2
0 49.97 -49.2
9.9 49.97 -49.2
19.8 49.97 -49.2
29.7 49.97 -49.2
39.6 49.97 -49.2
49.5 49.97 -49.2
-49.5 59.12 -49.2
-39.6 59.12 -49.2
-29.7 59.12 -49.2
-19.8 59.12 -49.2
-9.9 59.12 -49.2
0 59.12 -49.2
9.9 59.12 -49.2
19.8 59.12 -49.2
29.7 59.12 -49.2
39.6 59.12 -49.2
49.5 59.12 -49.2
-49.5 68.28 -49.2
-39.6 68.28 -49.2
-29.7 68.28 -49.2
-19.8 68.28 -49.2
-9.9 68.28 -49.2
0 68.28 -49.2
9.9 68.28 -49.2
19.8 68.28 -49.2
29.7 68.28 -49.2
39.6 68.28 -49.2
49.5 68.28 -49.2
-49.5 77.43 -49.2
-39.6 77.43 -49.2
-29.7 77.43 -49.2
-19.8 77.43 -49.2
-9.9 77.43 -49.2
0 77.43 -49.2
9.9 77.43 -49.2
19.8 77.43 -49.2
29.7 77.43 -49.2
39.6 77.43 -49.2
49.5 77.43 -49.2
-49.5 -14.1 -39.36
-39.6 -14.1 -39.36
-29.7 -14.1 -39.36
-19.8 -14.1 -39.36
-9.9 -14.1 -39.36
0 -14.1 -39.36
9.9 -14.1 -39.36
19.8 -14.1 -39.36
29.7 -14.1 -39.36
39.6 -14.1 -39.36
49.5 -14.1 -39.36
-49.5 -4.95 -39.36
-39.6 -4.95 -39.36
-29.7 -4.95 -39.36
-19.8 -4.95 -39.36
-9.9 -4.95 -39.36
0 -4.95 -39.36
9.9 -4.95 -39.36
19.8 -4.95 -39.36
29.7 -4.95 -39.36
39.6 -4.95 -39.36
49.5 -4.95 -39.36
-49.5 4.21 -39.36
-39.6 4.21 -39.36
-29.7 4.21 -39.36
-19.8 4.21 -39.36
-9.9 4.21 -39.36
0 4.21 -39.36
9.9 4.21 -39.36
19.8 4.21 -39.36
29.7 4.21 -39.36
39.6 4.21 -39.36
49.5 4.21 -39.36
-49.5 13.36 -39.36
-39.6 13.36 -39.36
-29.7 13.36 -39.36
-19.8 13.36 -39.36
-9.9 13.36 -39.36
0 13.36 -39.36
9.9 13.36 -39.36
19.8 13.36 -39.36
29.7 13.36 -39.36
39.6 13.36 -39.36
49.5 13.36 -39.36
-49.5 22.51 -39.36
-39.6 22.51 -39.36
-29.7 22.51 -39.36
-19.8 22.51 -39.36
-9.9 22.51 -39.36
0 22.51 -39.36
9.9 22.51 -39.36
19.8 22.51 -39.36
29.7 22.51 -39.36
39.6 22.51 -39.36
49.5 22.51 -39.36
-49.5 31.66 -39.36
-39.6 31.66 -39.36
-29.7 31.66 -39.36
-19.8 31.66 -39.36
-9.9 31.66 -39.36
0 31.66 -39.36
9.9 31.66 -39.36
19.8 31.66 -39.36
29.7 31.66 -39.36
39.6 31.66 -39.36
49.5 31.66 -39.36
-49.5 40.82 -39.36
-39.6 40.82 -39.36
-29.7 40.82 -39.36
-19.8 40.82 -39.36
-9.9 40.82 -39.36
0 40.82 -39.36
9.9 40.82 -39.36
19.8 40.82 -39.36
29.7 40.82 -39.36
39.6 40.82 -39.36
49.5 40.82 -39.36
-49.5 49.97 -39.36
-39.6 49.97 -39.36
-29.7 49.97 -39.36
-19.8 49.97 -39.36
-9.9 49.97 -39.36
0 49.97 -39.36
9.9 49.97 -39.36
19.8 49.97 -39.36
29.7 49.97 -39.36
39.6 49.97 -39.36
49.5 49.97 -39.36
-49.5 59.12 -39.36
-39.6 59.12 -39.36
-29.7 59.12 -39.36
-19.8 59.12 -39.36
-9.9 59.12 -39.36
0 59.12 -39.36
9.9 59.12 -39.36
19.8 59.12 -39.36
29.7 59.12 -39.36
39.6 59.12 -39.36
49.5 59.12 -39.36
-49.5 68.28 -39.36
-39.6 68.28 -39.36
-29.7 68.28 -39.36
-19.8 68.28 -39.36
-9.9 68.28 -39.36
0 68.28 -39.36
9.9 68.28 -39.36
19.8 68.28 -39.36
29.7 68.28 -39.36
39.6 68.28 -39.36
49.5 68.28 -39.36
-49.5 77.43 -39.36
-39.6 77.43 -39.36
-29.7 77.43 -39.36
-19.8 77.43 -39.36
-9.9 77.43 -39.36
0 77.43 -39.36
9.9 77.43 -39.36
19.8 77.43 -39.36
29.7 77.43 -39.36
39.6 77.43 -39.36
49.5 77.43 -39.36
-49.5 -14.1 -29.52
-39.6 -14.1 -29.52
-29.7 -14.1 -29.52
-19.8 -14.1 -29.52
-9.9 -14.1 -29.52
0 -14.1 -29.52
9.9 -14.1 -29.52
19.8 -14.1 -29.52
29.7 -14.1 -29.52
39.6 -14.1 -29.52
49.5 -14.1 -29.52
-49.5 -4.95 -29.52
-39.6 -4.95 -29.52
-29.7 -4.95 -29.52
-19.8 -4.95 -29.52
-9.9 -4.95 -29.52
0 -4.95 -29.52
9.9 -4.95 -29.52
19.8 -4.95 -29.52
29.7 -4.95 -29.52
39.6 -4.95 -29.52
49.5 -4.95 -29.52
-49.5 4.21 -29.52
-39.6 4.21 -29.52
-29.7 4.21 -29.52
-19.8 4.21 -29.52
-9.9 4.21 -29.52
0 4.21 -29.52
9.9 4.21 -29.52
19.8 4.21 -29.52
29.7 4.21 -29.52
39.6 4.21 -29.52
49.5 4.21 -29.52
-49.5 13.36 -29.52
-39.6 13.36 -29.52
-29.7 13.36 -29.52
-19.8 13.36 -29.52
-9.9 13.36 -29.52
0 13.36 -29.52
9.9 13.36 -29.52
19.8 13.36 -29.52
29.7 13.36 -29.52
39.6 13.36 -29.52
49.5 13.36 -29.52
-49.5 22.51 -29.52
-39.6 22.51 -29.52
-29.7 22.51 -29.52
-19.8 22.51 -29.52
-9.9 22.51 -29.52
0 22.51 -29.52
9.9 22.51 -29.52
19.8 22.51 -29.52
29.7 22.51 -29.52
39.6 22.51 -29.52
49.5 22.51 -29.52
-49.5 31.66 -29.52
-39.6 31.66 -29.52
-29.7 31.66 -29.52
-19.8 31.66 -29.52
-9.9 31.66 -29.52
0 31.66 -29.52
9.9 31.66 -29.52
19.8 31.66 -29.52
29.7 31.66 -29.52
39.6 31.66 -29.52
49.5 31.66 -29.52
-49.5 40.82 -29.52
-39.6 40.82 -29.52
-29.7 40.82 -29.52
-19.8 40.82 -29.52
-9.9 40.82 -29.52
0 40.82 -29.52
9.9 40.82 -29.52
19.8 40.82 -29.52
29.7 40.82 -29.52
39.6 40.82 -29.52
49.5 40.82 -29.52
-49.5 49.97 -29.52
-39.6 49.97 -29.52
-29.7 49.97 -29.52
-19.8 49.97 -29.52
-9.9 49.97 -29.52
0 49.97 -29.52
9.9 49.97 -29.52
19.8 49.97 -29.52
29.7 49.97 -29.52
39.6 49.97 -29.52
49.5 49.97 -29.52
-49.5 59.12 -29.52
-39.6 59.12 -29.52
-29.7 59.12 -29.52
-19.8 59.12 -29.52
-9.9 59.12 -29.52
0 59.12 -29.52
9.9 59.12 -29.52
19.8 59.12 -29.52
29.7 59.12 -29.52
39.6 59.12 -29.52
49.5 59.12 -29.52
-49.5 68.28 -29.52
-39.6 68.28 -29.52
-29.7 68.28 -29.52
-19.8 68.28 -29.52
-9.9 68.28 -29.52
0 68.28 -29.52
9.9 68.28 -29.52
19.8 68.28 -29.52
29.7 68.28 -29.52
39.6 68.28 -29.52
49.5 68.28 -29.52
-49.5 77.43 -29.52
-39.6 77.43 -29.52
-29.7 77.43 -29.52
-19.8 77.43 -29.52
-9.9 77.43 -29.52
0 77.43 -29.52
9.9 77.43 -29.52
19.8 77.43 -29.52
29.7 77.43 -29.52
39.6 77.43 -29.52
49.5 77.43 -29.52
-49.5 -14.1 -19.68
-39.6 -14.1 -19.68
-29.7 -14.1 -19.68
-19.8 -14.1 -19.68
-9.9 -14.1 -19.68
0 -14.1 -19.68
9.9 -14.1 -19.68
19.8 -14.1 -19.68
29.7 -14.1 -19.68
39.6 -14.1 -19.68
49.5 -14.1 -19.68
-49.5 -4.95 -19.68
-39.6 -4.95 -19.68
-29.7 -4.95 -19.68
-19.8 -4.95 -19.68
-9.9 -4.95 -19.68
0 -4.95 -19.68
9.9 -4.95 -19.68
19.8 -4.95 -19.68
29.7 -4.95 -19.68
39.6 -4.95 -19.68
49.5 -4.95 -19.68
-49.5 4.21 -19.68
-39.6 4.21 -19.68
-29.7 4.21 -19.68
-19.8 4.21 -19.68
-9.9 4.21 -19.68
0 4.21 -19.68
9.9 4.21 -19.68
19.8 4.21 -19.68
29.7 4.21 -19.68
39.6 4.21 -19.68
49.5 4.21 -19.68
-49.5 13.36 -19.68
-39.6 13.36 -19.68
-29.7 13.36 -19.68
-19.8 13.36 -19.68
-9.9 13.36 -19.68
0 13.36 -19.68
9.9 13.36 -19.68
19.8 13.36 -19.68
29.7 13.36 -19.68
39.6 13.36 -19.68
49.5 13.36 -19.68
-49.5 22.51 -19.68
-39.6 22.51 -19.68
-29.7 22.51 -19.68
-19.8 22.51 -19.68
-9.9 22.51 -19.68
0 22.51 -19.68
9.9 22.51 -19.68
19.8 22.51 -19.68
29.7 22.51 -19.68
39.6 22.51 -19.68
49.5 22.51 -19.68
-49.5 31.66 -19.68
-39.6 31.66 -19.68
-29.7 31.66 -19.68
-19.8 31.66 -19.68
-9.9 31.66 -19.68
0 31.66 -19.68
9.9 31.66 -19.68
19.8 31.66 -19.68
29.7 31.66 -19.68
39.6 31.66 -19.68
49.5 31.66 -19.68
-49.5 40.82 -19.68
-39.6 40.82 -19.68
-29.7 40.82 -19.68
-19.8 40.82 -19.68
-9.9 40.82 -19.68
0 40.82 -19.68
9.9 40.82 -19.68
19.8 40.82 -19.68
29.7 40.82 -19.68
39.6 40.82 -19.68
49.5 40.82 -19.68
-49.5 49.97 -19.68
-39.6 49.97 -19.68
-29.7 49.97 -19.68
-19.8 49.97 -19.68
-9.9 49.97 -19.68
0 49.97 -19.68
9.9 49.97 -19.68
19.8 49.97 -19.68
29.7 49.97 -19.68
39.6 49.97 -19.68
49.5 49.97 -19.68
-49.5 59.12 -19.68
-39.6 59.12 -19.68
-29.7 59.12 -19.68
-19.8 59.12 -19.68
-9.9 59.12 -19.68
0 59.12 -19.68
9.9 59.12 -19.68
19.8 59.12 -19.68
29.7 59.12 -19.68
39.6 59.12 -19.68
49.5 59.12 -19.68
-49.5 68.28 -19.68
-39.6 68.28 -19.68
-29.7 68.28 -19.68
-19.8 68.28 -19.68
-9.9 68.28 -19.68
0 68.28 -19.68
9.9 68.28 -19.68
19.8 68.28 -19.68
29.7 68.28 -19.68
39.6 68.28 -19.68
49.5 68.28 -19.68
-49.5 77.43 -19.68
-39.6 77.43 -19.68
-29.7 77.43 -19.68
-19.8 77.43 -19.68
-9.9 77.43 -19.68
0 77.43 -19.68
9.9 77.43 -19.68
19.8 77.43 -19.68
29.7 77.43 -19.68
39.6 77.43 -19.68
49.5 77.43 -19.68
-49.5 -14.1 -9.84
-39.6 -14.1 -9.84
-29.7 -14.1 -9.84
-19.8 -14.1 -9.84
-9.9 -14.1 -9.84
0 -14.1 -9.84
9.9 -14.1 -9.84
19.8 -14.1 -9.84
29.7 -14.1 -9.84
39.6 -14.1 -9.84
49.5 -14.1 -9.84
-49.5 -4.95 -9.84
-39.6 -4.95 -9.84
-29.7 -4.95 -9.84
-19.8 -4.95 -9.84
-9.9 -4.95 -9.84
0 -4.95 -9.84
9.9 -4.95 -9.84
19.8 -4.95 -9.84
29.7 -4.95 -9.84
39.6 -4.95 -9.84
49.5 -4.95 -9.84
-49.5 4.21 -9.84
-39.6 4.21 -9.84
-29.7 4.21 -9.84
-19.8 4.21 -9.84
-9.9 4.21 -9.84
0 4.21 -9.84
9.9 4.21 -9.84
19.8 4.21 -9.84
29.7 4.21 -9.84
39.6 4.21 -9.84
49.5 4.21 -9.84
-49.5 13.36 -9.84
-39.6 13.36 -9.84
-29.7 13.36 -9.84
-19.8 13.36 -9.84
-9.9 13.36 -9.84
0 13.36 -9.84
9.9 13.36 -9.84
19.8 13.36 -9.84
29.7 13.36 -9.84
39.6 13.36 -9.84
49.5 13.36 -9.84
-49.5 22.51 -9.84
-39.6 22.51 -9.84
-29.7 22.51 -9.84
-19.8 22.51 -9.84
-9.9 22.51 -9.84
0 22.51 -9.84
9.9 22.51 -9.84
19.8 22.51 -9.84
29.7 22.51 -9.84
39.6 22.51 -9.84
49.5 22.51 -9.84
-49.5 31.66 -9.84
-39.6 31.66 -9.84
-29.7 31.66 -9.84
-19.8 31.66 -9.84
-9.9 31.66 -9.84
0 31.66 -9.84
9.9 31.66 -9.84
19.8 31.66 -9.84
29.7 31.66 -9.84
39.6 31.66 -9.84
49.5 31.66 -9.84
-49.5 40.82 -9.84
-39.6 40.82 -9.84
-29.7 40.82 -9.84
-19.8 40.82 -9.84
-9.9 40.82 -9.84
0 40.82 -9.84
9.9 40.82 -9.84
19.8 40.82 -9.84
29.7 40.82 -9.84
39.6 40.82 -9.84
49.5 40.82 -9.84
-49.5 49.97 -9.84
-39.6 49.97 -9.84
-29.7 49.97 -9.84
[...]
CELL_DATA 1000
SCALARS TALLY_TAG double 1
LOOKUP_TABLE default
2.30908e-05 
2.84447e-05 
3.12259e-05 
3.27392e-05 
3.34553e-05 
3.3479e-05 
3.27809e-05 
3.12364e-05 
2.84757e-05 
2.31216e-05 
2.53657e-05 
3.22981e-05 
3.53626e-05 
3.68246e-05 
3.74508e-05 
3.74828e-05 
3.68669e-05 
3.54088e-05 
3.23203e-05 
2.53981e-05 
2.77864e-05 
3.91277e-05 
4.2654e-05 
4.39269e-05 
4.442e-05 
4.44576e-05 
4.39818e-05 
4.26863e-05 
3.91783e-05 
2.78155e-05 
3.47576e-05 
5.35407e-05 
5.95066e-05 
6.15554e-05 
6.22349e-05 
6.22554e-05 
6.16217e-05 
5.94957e-05 
5.35458e-05 
3.47729e-05 
3.66423e-05 
5.75091e-05 
6.48704e-05 
6.76523e-05 
6.86794e-05 
6.86491e-05 
6.76569e-05 
6.48503e-05 
5.74827e-05 
3.65778e-05 
3.63563e-05 
5.70926e-05 
6.46516e-05 
6.75661e-05 
6.86859e-05 
6.86764e-05 
6.75339e-05 
6.46495e-05 
5.70744e-05 
3.63448e-05 
3.56304e-05 
5.554e-05 
6.21658e-05 
6.46249e-05 
6.5421e-05 
6.53823e-05 
6.45405e-05 
6.21784e-05 
5.54942e-05 
3.55531e-05 
3.18319e-05 
4.82299e-05 
5.30099e-05 
5.44481e-05 
5.48765e-05 
5.48543e-05 
5.43952e-05 
5.29661e-05 
4.82733e-05 
3.17757e-05 
2.93315e-05 
4.37354e-05 
4.76236e-05 
4.86387e-05 
4.89077e-05 
4.88614e-05 
4.85698e-05 
4.75694e-05 
4.37508e-05 
2.93533e-05 
1.99717e-05 
2.83994e-05 
3.05108e-05 
3.10441e-05 
3.11709e-05 
3.11433e-05 
3.10093e-05 
3.04789e-05 
2.83978e-05 
1.99847e-05 
2.84583e-05 
3.5472e-05 
3.92378e-05 
4.12467e-05 
4.21809e-05 
4.22039e-05 
4.13244e-05 
3.92611e-05 
3.55116e-05 
2.8444e-05 
3.22857e-05 
4.19125e-05 
4.62899e-05 
4.83642e-05 
4.92436e-05 
4.92744e-05 
4.84023e-05 
4.63058e-05 
4.19914e-05 
3.23334e-05 
3.91522e-05 
5.72528e-05 
6.31609e-05 
6.54001e-05 
6.61531e-05 
6.61786e-05 
6.5394e-05 
6.31573e-05 
5.72744e-05 
3.91178e-05 
5.35688e-05 
8.6002e-05 
9.69161e-05 
0.000100971 
0.000102298 
0.000102262 
0.000100993 
9.69607e-05 
8.59449e-05 
5.34918e-05 
5.74528e-05 
9.42528e-05 
0.000108323 
0.000113837 
0.0001163 
0.000116209 
0.00011395 
0.000108338 
9.42511e-05 
5.73626e-05 
5.70193e-05 
9.38557e-05 
0.000108345 
0.000114188 
0.000117218 
0.000117255 
0.000114272 
0.000108368 
9.38677e-05 
5.70387e-05 
5.54114e-05 
9.04842e-05 
0.000103053 
0.000107822 
0.000109578 
0.000109602 
0.000107765 
0.000103035 
9.0533e-05 
5.55177e-05 
4.81497e-05 
7.62191e-05 
8.49585e-05 
8.77437e-05 
8.86192e-05 
8.86661e-05 
8.77278e-05 
8.4974e-05 
7.63324e-05 
4.81832e-05 
4.36976e-05 
6.78708e-05 
7.48003e-05 
7.67732e-05 
7.73518e-05 
7.72816e-05 
7.66827e-05 
7.47564e-05 
6.79939e-05 
4.37414e-05 
2.8382e-05 
4.20242e-05 
4.56998e-05 
4.67394e-05 
4.69966e-05 
4.69713e-05 
4.67305e-05 
4.57588e-05 
4.20405e-05 
2.83789e-05 
3.12412e-05 
3.92294e-05 
4.36344e-05 
4.60816e-05 
4.73015e-05 
4.73462e-05 
4.61584e-05 
4.36799e-05 
3.92476e-05 
3.12784e-05 
3.53402e-05 
4.62361e-05 
5.13495e-05 
5.39408e-05 
5.51296e-05 
5.51239e-05 
5.39642e-05 
5.14059e-05 
4.62911e-05 
3.53895e-05 
4.25635e-05 
6.30936e-05 
7.00936e-05 
7.28682e-05 
7.4e-05 
7.39787e-05 
7.28859e-05 
7.00913e-05 
6.30614e-05 
4.2632e-05 
5.93281e-05 
9.67927e-05 
0.000110127 
0.000115034 
0.000116467 
0.000116365 
0.000115037 
0.000110108 
9.67306e-05 
5.93436e-05 
6.4705e-05 
0.000108098 
0.000125462 
0.000132342 
0.000135288 
0.000135289 
0.000132446 
0.000125465 
0.000108173 
6.46729e-05 
6.44014e-05 
0.000108029 
0.000125975 
0.000133584 
0.000137673 
0.000137714 
0.000133539 
0.000125965 
0.000107986 
6.43513e-05 
6.19111e-05 
0.000102731 
0.000118099 
0.000124109 
0.000126036 
0.000126013 
0.000123992 
0.000118084 
0.000102775 
6.19784e-05 
5.27698e-05 
8.47768e-05 
9.50898e-05 
9.85998e-05 
9.97408e-05 
9.9678e-05 
9.85373e-05 
9.50308e-05 
8.47776e-05 
5.2817e-05 
4.74161e-05 
7.46825e-05 
8.26721e-05 
8.51943e-05 
8.59767e-05 
8.58896e-05 
8.51342e-05 
8.27278e-05 
7.47045e-05 
4.74923e-05 
3.0425e-05 
4.56828e-05 
5.00056e-05 
5.13308e-05 
5.16465e-05 
5.15758e-05 
5.12573e-05 
4.99946e-05 
4.5735e-05 
3.04339e-05 
3.27367e-05 
4.12269e-05 
4.60579e-05 
4.90079e-05 
5.13204e-05 
5.1511e-05 
4.93302e-05 
4.6131e-05 
4.12789e-05 
3.27594e-05 
3.68077e-05 
4.82877e-05 
5.39125e-05 
5.68631e-05 
5.85493e-05 
5.84273e-05 
5.69108e-05 
5.39361e-05 
4.83002e-05 
3.68231e-05 
4.37852e-05 
6.51743e-05 
7.27527e-05 
7.60418e-05 
7.75436e-05 
7.73752e-05 
7.59263e-05 
7.26962e-05 
6.52045e-05 
4.38633e-05 
6.12155e-05 
0.000100493 
0.000114764 
0.000120126 
0.000121455 
0.000121403 
0.00012016 
0.000114714 
0.000100477 
6.12557e-05 
6.72008e-05 
0.000113158 
0.000131932 
0.000139257 
0.000140871 
0.000140881 
0.000139268 
0.000131929 
0.000113192 
6.72111e-05 
6.7099e-05 
0.000113282 
0.000132794 
0.000140795 
0.000143122 
0.000143083 
0.000140861 
0.000132719 
0.000113264 
6.70797e-05 
6.41618e-05 
0.000106987 
0.000123636 
0.000129869 
0.000131292 
0.000131234 
0.000129843 
0.000123584 
0.000107129 
6.42236e-05 
5.4158e-05 
8.7345e-05 
9.82896e-05 
0.000102095 
0.000103225 
0.000103236 
0.000102087 
9.82818e-05 
8.73325e-05 
5.4185e-05 
4.84638e-05 
7.65571e-05 
8.50329e-05 
8.76035e-05 
8.84565e-05 
8.85001e-05 
8.76162e-05 
8.50391e-05 
7.66188e-05 
4.85158e-05 
3.09752e-05 
4.66682e-05 
5.12634e-05 
5.25662e-05 
5.29122e-05 
5.29274e-05 
5.25807e-05 
5.12263e-05 
4.67041e-05 
3.09576e-05 
3.34343e-05 
4.21363e-05 
4.7253e-05 
5.12966e-05 
5.34884e-05 
5.36199e-05 
5.14665e-05 
4.7304e-05 
4.21313e-05 
3.34347e-05 
3.74001e-05 
4.91437e-05 
5.5017e-05 
5.84691e-05 
6.04253e-05 
6.03389e-05 
5.83818e-05 
5.49998e-05 
4.9136e-05 
3.74216e-05 
4.4243e-05 
6.59137e-05 
7.3789e-05 
7.74261e-05 
7.95295e-05 
7.92719e-05 
7.72699e-05 
7.36576e-05 
6.58189e-05 
4.42527e-05 
6.18143e-05 
0.000101709 
0.000116345 
0.000121903 
0.000123468 
0.000123497 
0.000121826 
0.000116253 
0.00010166 
6.18194e-05 
6.80315e-05 
0.000114775 
0.000134003 
0.000141502 
0.000143279 
0.00014333 
0.000141428 
0.000133942 
0.00011481 
6.80262e-05 
6.79505e-05 
0.000115002 
0.000134941 
0.000143021 
0.000145457 
0.000145427 
0.000143141 
0.000134928 
0.000115006 
6.79408e-05 
6.47831e-05 
0.000108363 
0.000125291 
0.000131603 
0.000132961 
0.000132999 
0.000131655 
0.000125234 
0.0001084 
6.47801e-05 
5.4535e-05 
8.80584e-05 
9.91101e-05 
0.000102923 
0.000104189 
0.000104217 
0.000103062 
9.91124e-05 
8.79839e-05 
5.44599e-05 
4.87378e-05 
7.69435e-05 
8.55601e-05 
8.8209e-05 
8.90837e-05 
8.90705e-05 
8.82182e-05 
8.55306e-05 
7.69605e-05 
4.87012e-05 
3.11018e-05 
4.68841e-05 
5.14806e-05 
5.29004e-05 
5.32722e-05 
5.32975e-05 
5.28578e-05 
5.14907e-05 
4.68851e-05 
3.10854e-05 
3.34604e-05 
4.21522e-05 
4.72815e-05 
5.15352e-05 
5.36015e-05 
5.34456e-05 
5.12936e-05 
4.73022e-05 
4.21421e-05 
3.3426e-05 
3.74463e-05 
4.9184e-05 
5.50028e-05 
5.83516e-05 
6.0305e-05 
6.04083e-05 
5.84333e-05 
5.50302e-05 
4.91132e-05 
3.73994e-05 
4.42515e-05 
6.58772e-05 
7.37031e-05 
7.71811e-05 
7.92021e-05 
7.94507e-05 
7.73314e-05 
7.37261e-05 
6.58574e-05 
4.42257e-05 
6.17958e-05 
0.000101533 
0.000116207 
0.000121862 
0.000123681 
0.000123669 
0.000121784 
0.00011619 
0.000101609 
6.18238e-05 
6.80317e-05 
0.000114712 
0.000133915 
0.00014154 
0.000143775 
0.000143769 
0.000141438 
0.000133842 
0.000114712 
6.80328e-05 
6.79458e-05 
0.000114962 
0.000134829 
0.000142894 
0.000145727 
0.00014571 
0.000142956 
0.000134796 
0.000115008 
6.79546e-05 
6.47382e-05 
0.000108278 
0.000125178 
0.000131479 
0.000133217 
0.000133232 
0.000131451 
0.000125025 
0.000108345 
6.47418e-05 
5.44819e-05 
8.79825e-05 
9.91044e-05 
0.0001028 
0.000103984 
0.000103968 
0.000102853 
9.89793e-05 
8.79131e-05 
5.44853e-05 
4.86551e-05 
7.6922e-05 
8.55437e-05 
8.81898e-05 
8.90022e-05 
8.89773e-05 
8.81682e-05 
8.5466e-05 
7.69797e-05 
4.86654e-05 
3.10969e-05 
4.6884e-05 
5.14816e-05 
5.28567e-05 
5.32261e-05 
5.3262e-05 
5.2822e-05 
5.15004e-05 
4.6892e-05 
3.10885e-05 
3.27606e-05 
4.12616e-05 
4.61286e-05 
4.93984e-05 
5.15265e-05 
5.12678e-05 
4.90137e-05 
4.60795e-05 
4.1243e-05 
3.27305e-05 
3.6812e-05 
4.83219e-05 
5.39053e-05 
5.68897e-05 
5.83257e-05 
5.84389e-05 
5.68453e-05 
5.38704e-05 
4.82953e-05 
3.68049e-05 
4.38366e-05 
6.51427e-05 
7.26286e-05 
7.57668e-05 
7.72174e-05 
7.74009e-05 
7.58742e-05 
7.26231e-05 
6.51354e-05 
4.37916e-05 
6.11553e-05 
0.000100384 
0.000114443 
0.000119837 
0.000121788 
0.000121803 
0.000119948 
0.000114609 
0.000100428 
6.12302e-05 
6.71699e-05 
0.000113028 
0.000131566 
0.000138936 
0.000141479 
0.000141542 
0.000138928 
0.000131563 
0.000113117 
6.72177e-05 
6.70371e-05 
0.000113186 
0.000132383 
0.000140163 
0.000142972 
0.000143036 
0.000140191 
0.000132404 
0.000113166 
6.70629e-05 
6.41144e-05 
0.000106886 
0.000123227 
0.000129387 
0.000131405 
0.000131424 
0.000129409 
0.000123207 
0.000107019 
6.4148e-05 
5.40912e-05 
8.72186e-05 
9.80737e-05 
0.000101676 
0.000102777 
0.000102838 
0.000101624 
9.80942e-05 
8.71973e-05 
5.40792e-05 
4.84177e-05 
7.64479e-05 
8.48594e-05 
8.74289e-05 
8.81589e-05 
8.81415e-05 
8.74679e-05 
8.49673e-05 
7.64492e-05 
4.84086e-05 
3.09344e-05 
4.65955e-05 
5.11405e-05 
5.24823e-05 
5.28534e-05 
5.28472e-05 
5.25219e-05 
5.12416e-05 
4.6669e-05 
3.09821e-05 
3.12337e-05 
3.92364e-05 
4.3666e-05 
4.61388e-05 
4.73089e-05 
4.72487e-05 
4.60348e-05 
4.35405e-05 
3.91759e-05 
3.12112e-05 
3.5347e-05 
4.62909e-05 
5.13842e-05 
5.3928e-05 
5.5019e-05 
5.50043e-05 
5.38866e-05 
5.12514e-05 
4.62327e-05 
3.5353e-05 
4.25785e-05 
6.30033e-05 
6.99509e-05 
7.26106e-05 
7.3669e-05 
7.37138e-05 
7.26632e-05 
6.99541e-05 
6.30247e-05 
4.25667e-05 
5.92037e-05 
9.65914e-05 
0.000109693 
0.000114555 
0.000116142 
0.000116231 
0.000114572 
0.000109849 
9.66783e-05 
5.93154e-05 
6.45567e-05 
0.000107886 
0.00012492 
0.000131602 
0.000133874 
0.000133851 
0.000131628 
0.000125069 
0.000108019 
6.46463e-05 
6.43707e-05 
0.000107805 
0.00012545 
0.000132508 
0.000134941 
0.000134959 
0.00013245 
0.000125535 
0.000107926 
6.43844e-05 
6.1983e-05 
0.000102591 
0.00011772 
0.000123334 
0.000125133 
0.000125134 
0.000123334 
0.000117682 
0.000102623 
6.19494e-05 
5.2752e-05 
8.45963e-05 
9.48348e-05 
9.8162e-05 
9.90784e-05 
9.90458e-05 
9.80872e-05 
9.48134e-05 
8.46496e-05 
5.27897e-05 
4.74061e-05 
7.45452e-05 
8.25558e-05 
8.5003e-05 
8.55517e-05 
8.55878e-05 
8.49993e-05 
8.25995e-05 
7.46228e-05 
4.74392e-05 
3.03914e-05 
4.55934e-05 
4.99629e-05 
5.11995e-05 
5.15321e-05 
5.15227e-05 
5.12138e-05 
5.00181e-05 
4.56412e-05 
3.04309e-05 
2.84598e-05 
3.55299e-05 
3.92347e-05 
4.12671e-05 
4.2177e-05 
4.21821e-05 
4.1235e-05 
3.9188e-05 
3.54551e-05 
2.84114e-05 
3.2311e-05 
4.19678e-05 
4.62749e-05 
4.83354e-05 
4.91948e-05 
4.92071e-05 
4.82967e-05 
4.6174e-05 
4.18881e-05 
3.22705e-05 
3.91295e-05 
5.71952e-05 
6.30875e-05 
6.5181e-05 
6.59439e-05 
6.60144e-05 
6.52159e-05 
6.30945e-05 
5.71633e-05 
3.91275e-05 
5.34164e-05 
8.59109e-05 
9.674e-05 
0.000100533 
0.000101687 
0.000101734 
0.0001005 
9.67178e-05 
8.58197e-05 
5.35077e-05 
5.73941e-05 
9.41861e-05 
0.000107998 
0.00011315 
0.000114862 
0.000114875 
0.000113165 
0.000107994 
9.42146e-05 
5.73763e-05 
5.70052e-05 
9.36986e-05 
0.000107912 
0.000113383 
0.000115144 
0.000115142 
0.00011334 
0.000107956 
9.37582e-05 
5.70003e-05 
5.54081e-05 
9.03025e-05 
0.000102651 
0.000107205 
0.000108396 
0.000108396 
0.000107111 
0.00010276 
9.03734e-05 
5.53921e-05 
4.81623e-05 
7.61494e-05 
8.47288e-05 
8.74837e-05 
8.80547e-05 
8.81241e-05 
8.73552e-05 
8.47226e-05 
7.61982e-05 
4.81737e-05 
4.3714e-05 
6.78355e-05 
7.46892e-05 
7.66645e-05 
7.71407e-05 
7.7118e-05 
7.66414e-05 
7.46736e-05 
6.78837e-05 
4.36844e-05 
2.83383e-05 
4.20002e-05 
4.57298e-05 
4.66912e-05 
4.70082e-05 
4.6983e-05 
4.67886e-05 
4.57459e-05 
4.2042e-05 
2.83448e-05 
2.3099e-05 
2.84374e-05 
3.12087e-05 
3.27602e-05 
3.34635e-05 
3.34595e-05 
3.27511e-05 
3.12206e-05 
2.84256e-05 
2.31055e-05 
2.54004e-05 
3.23142e-05 
3.53767e-05 
3.68332e-05 
3.74204e-05 
3.74395e-05 
3.68187e-05 
3.53277e-05 
3.22832e-05 
2.53692e-05 
2.78199e-05 
3.91542e-05 
4.26254e-05 
4.38478e-05 
4.42928e-05 
4.43297e-05 
4.39062e-05 
4.2598e-05 
3.91502e-05 
2.78097e-05 
3.47634e-05 
5.35498e-05 
5.93295e-05 
6.13144e-05 
6.19503e-05 
6.19282e-05 
6.13859e-05 
5.93555e-05 
5.34649e-05 
3.4779e-05 
3.65979e-05 
5.7389e-05 
6.47463e-05 
6.73595e-05 
6.81893e-05 
6.81631e-05 
6.72631e-05 
6.46718e-05 
5.74051e-05 
3.65974e-05 
3.63457e-05 
5.70772e-05 
6.44861e-05 
6.72625e-05 
6.80772e-05 
6.80277e-05 
6.71903e-05 
6.44996e-05 
5.70477e-05 
3.63271e-05 
3.55504e-05 
5.54524e-05 
6.19855e-05 
6.42865e-05 
6.49098e-05 
6.49644e-05 
6.42626e-05 
6.205e-05 
5.54638e-05 
3.55827e-05 
3.17698e-05 
4.82359e-05 
5.28998e-05 
5.4274e-05 
5.45868e-05 
5.46721e-05 
5.42332e-05 
5.28789e-05 
4.82214e-05 
3.17538e-05 
2.93478e-05 
4.37372e-05 
4.75693e-05 
4.85666e-05 
4.87714e-05 
4.88205e-05 
4.85307e-05 
4.75397e-05 
4.37898e-05 
2.93269e-05 
1.9985e-05 
2.83638e-05 
3.04841e-05 
3.10083e-05 
3.11427e-05 
3.11403e-05 
3.10339e-05 
3.04848e-05 
2.83996e-05 
1.99716e-05 
SCALARS ERROR_TAG double 1
LOOKUP_TABLE default
0.000614337 
0.000555257 
0.000530197 
0.000517759 
0.000512246 
0.000512053 
0.000517444 
0.000530036 
0.000554911 
0.000614158 
0.000592815 
0.000528558 
0.000505166 
0.000494921 
0.000490742 
0.000490576 
0.000494646 
0.00050476 
0.000528226 
0.000592437 
0.000694381 
0.000605703 
0.000580364 
0.000571654 
0.000568288 
0.000568415 
0.000571268 
0.000580286 
0.000605344 
0.000694192 
0.000679854 
0.000570072 
0.000539464 
0.000529703 
0.000526562 
0.000526589 
0.000529829 
0.000539306 
0.000569694 
0.000679837 
0.000656365 
0.000552371 
0.000520243 
0.000509355 
0.000505016 
0.000505116 
0.000508979 
0.000520265 
0.0005524 
0.000656923 
0.000653236 
0.00055196 
0.000520036 
0.000508228 
0.000503757 
0.000503861 
0.000508225 
0.00051957 
0.000552071 
0.000653429 
0.000677366 
0.000566644 
0.000534841 
0.000524456 
0.000520632 
0.000520756 
0.000524467 
0.000535116 
0.000566584 
0.000677373 
0.000707977 
0.000597408 
0.000568565 
0.000560544 
0.000558376 
0.000558142 
0.000560653 
0.000568836 
0.000597295 
0.000708135 
0.000738397 
0.000629596 
0.000602753 
0.000595822 
0.000593889 
0.000594078 
0.000595953 
0.000602939 
0.000629625 
0.000738538 
0.000848024 
0.000740482 
0.000713877 
0.000706823 
0.000705506 
0.000706347 
0.000707812 
0.000713629 
0.000739895 
0.000847009 
0.00055506 
0.000498325 
0.000473755 
0.000461998 
0.000456782 
0.000456561 
0.000461609 
0.000473655 
0.000498061 
0.000555187 
0.000528651 
0.000467141 
0.000444366 
0.000434576 
0.000430536 
0.000430366 
0.00043435 
0.000444154 
0.0004667 
0.000528259 
0.000605532 
0.00052277 
0.000497616 
0.000488842 
0.000485696 
0.000485603 
0.000488805 
0.000497479 
0.000522467 
0.000605928 
0.00056961 
0.000469708 
0.000440865 
0.000431376 
0.000428246 
0.000428093 
0.000431456 
0.000440948 
0.000469662 
0.000569718 
0.000552518 
0.000460897 
0.000430476 
0.000418863 
0.000410978 
0.000411231 
0.000418937 
0.000430472 
0.000460955 
0.000552277 
0.000551931 
0.000465154 
0.00043494 
0.000422341 
0.000410905 
0.000411013 
0.00042232 
0.000434843 
0.000465241 
0.000552152 
0.00056695 
0.000467012 
0.000436784 
0.00042636 
0.000421517 
0.00042139 
0.000426425 
0.000436888 
0.000466839 
0.000566714 
0.000597696 
0.000495507 
0.000467994 
0.000459659 
0.000457077 
0.000456991 
0.000459733 
0.000468013 
0.000495015 
0.000597346 
0.000629816 
0.000528774 
0.000502301 
0.000495037 
0.000493128 
0.000493193 
0.00049521 
0.000502253 
0.000528312 
0.000629693 
0.000739783 
0.00063865 
0.000611844 
0.000604751 
0.000603068 
0.00060302 
0.000604783 
0.000611774 
0.00063809 
0.000740284 
0.000529951 
0.000473845 
0.000449104 
0.000436996 
0.000431327 
0.000431121 
0.000436583 
0.000448993 
0.000473759 
0.000529652 
0.000505269 
0.000444633 
0.000421712 
0.000411427 
0.000406947 
0.000406898 
0.000411199 
0.000421461 
0.000444371 
0.000504922 
0.000580652 
0.000498058 
0.0004724 
0.00046301 
0.000459471 
0.000459416 
0.000463 
0.000472274 
0.00049782 
0.00058037 
0.000540296 
0.000441306 
0.000412421 
0.000402647 
0.000399405 
0.000399487 
0.000402699 
0.000412419 
0.000441439 
0.000539997 
0.000520624 
0.000430886 
0.000400616 
0.000387572 
0.000354793 
0.000354828 
0.000387377 
0.000400538 
0.000430958 
0.000520762 
0.000520497 
0.000435462 
0.000404899 
0.000389471 
0.000339619 
0.000339585 
0.000389537 
0.000404828 
0.000435594 
0.000520556 
0.000535776 
0.000437351 
0.000407201 
0.000396014 
0.000384095 
0.000384153 
0.000396051 
0.000407177 
0.000437399 
0.000535528 
0.000569553 
0.000468445 
0.000440893 
0.000432189 
0.000429499 
0.000429448 
0.000432344 
0.000440844 
0.000468432 
0.000569449 
0.000603043 
0.000502703 
0.000476198 
0.00046859 
0.000466349 
0.000466271 
0.000468669 
0.000476099 
0.000502594 
0.000603433 
0.000714943 
0.000612122 
0.000584892 
0.000577321 
0.000575585 
0.000575382 
0.000577769 
0.000584986 
0.000612025 
0.000714701 
0.000517735 
0.000462087 
0.000437079 
0.000426295 
0.00042337 
0.000420361 
0.000423906 
0.000436658 
0.000461889 
0.000517643 
0.000494975 
0.000434912 
0.000411558 
0.000401626 
0.000397076 
0.000395716 
0.00040054 
0.00041137 
0.000434797 
0.000494933 
0.000572338 
0.000489844 
0.000463433 
0.000453433 
0.000449232 
0.000449174 
0.000453408 
0.000463535 
0.000489747 
0.000571998 
0.000531104 
0.000432289 
0.000403263 
0.000393314 
0.000390377 
0.000390361 
0.000393435 
0.000403307 
0.000432398 
0.000530639 
0.000510587 
0.000420997 
0.000390269 
0.00037682 
0.000339054 
0.000339001 
0.000377019 
0.000390226 
0.000420979 
0.000510672 
0.000510154 
0.000425311 
0.000394307 
0.000378367 
0.000318901 
0.000318881 
0.000378364 
0.000394389 
0.000425289 
0.000509877 
0.00052596 
0.000428072 
0.000397556 
0.000386218 
0.000373622 
0.000373621 
0.000386281 
0.00039767 
0.000427906 
0.000525998 
0.000561644 
0.000460861 
0.000432799 
0.000424093 
0.000421423 
0.000421475 
0.000424144 
0.000432893 
0.000460834 
0.000561575 
0.000596484 
0.000495858 
0.000468932 
0.000461316 
0.000458968 
0.00045886 
0.000461303 
0.000469116 
0.000495797 
0.000596189 
0.000707954 
0.000605642 
0.000577974 
0.000570337 
0.000567862 
0.000567886 
0.000570165 
0.000577937 
0.000605375 
0.000707961 
0.000512303 
0.000457008 
0.00043158 
0.000423653 
0.000421464 
0.000416882 
0.000420632 
0.000431313 
0.000457083 
0.000512364 
0.00049102 
0.000431065 
0.000407335 
0.000397483 
0.000395659 
0.000392081 
0.000395915 
0.00040732 
0.000431035 
0.000490913 
0.000568984 
0.000486652 
0.000460251 
0.000449318 
0.000442429 
0.000442041 
0.000449556 
0.000460269 
0.000487052 
0.000569037 
0.000528311 
0.000429648 
0.000400346 
0.000390313 
0.000385277 
0.000385254 
0.000390429 
0.000400455 
0.000429876 
0.000528125 
0.000507121 
0.000417749 
0.000387107 
0.000373886 
0.000335864 
0.000335418 
0.000373866 
0.00038719 
0.000417896 
0.000507447 
0.000506776 
0.000422124 
0.000391173 
0.000375572 
0.000316963 
0.000316413 
0.000375348 
0.000391126 
0.000422094 
0.000506644 
0.000523195 
0.000425155 
0.000394677 
0.00038361 
0.000371127 
0.000370913 
0.000383558 
0.000394715 
0.000425148 
0.000523337 
0.00055974 
0.000458716 
0.000430742 
0.000422165 
0.000419358 
0.000419225 
0.000421948 
0.000430695 
0.000458876 
0.000559965 
0.000594833 
0.000494115 
0.000467169 
0.000459436 
0.000457228 
0.000457042 
0.000459589 
0.000467511 
0.000494325 
0.000595221 
0.000706013 
0.000604152 
0.000576156 
0.000568281 
0.000565958 
0.000565286 
0.000568492 
0.000576059 
0.000603776 
0.000706117 
0.000512168 
0.000456929 
0.000431453 
0.000420415 
0.000416963 
0.000421748 
0.000423638 
0.000431397 
0.000457047 
0.000512401 
0.000490792 
0.000430922 
0.000407426 
0.000396009 
0.000392235 
0.000395799 
0.000397579 
0.000407345 
0.000431212 
0.000491095 
0.00056933 
0.000486982 
0.000460511 
0.00044978 
0.000442331 
0.000442636 
0.000449795 
0.000460365 
0.000487127 
0.000569275 
0.000528197 
0.000429753 
0.000400528 
0.000390434 
0.000385095 
0.000385167 
0.000390425 
0.000400485 
0.000429832 
0.000528255 
0.000507467 