# vtk DataFile Version 3.0
MOAB 5.1.0
ASCII
DATASET UNSTRUCTURED_GRID
POINTS 27 double
-15 -15 -15
0 -15 -15
15 -15 -15
-15 0 -15
0 0 -15
15 0 -15
-15 15 -15
0 15 -15
15 15 -15
-15 -15 0
0 -15 0
15 -15 0
-15 0 0
0 0 0
15 0 0
-15 15 0
0 15 0
15 15 0
-15 -15 15
0 -15 15
15 -15 15
-15 0 15
0 0 15
15 0 15
-15 15 15
0 15 15
15 15 15
CELLS 8 72
8 0 1 4 3 9 10 13 12
8 1 2 5 4 10 11 14 13
8 3 4 7 6 12 13 16 15
8 4 5 8 7 13 14 17 16
8 9 10 13 12 18 19 22 21
8 10 11 14 13 19 20 23 22
8 12 13 16 15 21 22 25 24
8 13 14 17 16 22 23 26 25
CELL_TYPES 8
12
12
12
12
12
12
12
12
CELL_DATA 8
SCALARS idx int 1
LOOKUP_TABLE default
0 
4 
2 
6 
1 
5 
3 
7 
SCALARS neutron_result_total double 1
LOOKUP_TABLE default
0.00100113 
0.00099452 
0.000993496 
0.000999089 
0.000992571 
0.00100024 
0.000989467 
0.000997831 
SCALARS neutron_result_total_rel_error double 1
LOOKUP_TABLE default
0.00658149 
0.00658921 
0.00657742 
0.00656348 
0.00655272 
0.00657936 
0.0066233 
0.00656561 
SCALARS neutron_result_exp double 1
LOOKUP_TABLE default
0.000271841 
0.000268726 
0.000270454 
0.000275937 
0.000272545 
0.000271708 
0.000270595 
0.000271816 
SCALARS neutron_result_rel_error_exp double 1
LOOKUP_TABLE default
0.00782618 
0.00783119 
0.0078297 
0.00784499 
0.00782421 
0.00781861 
0.00787163 
0.00781109 
